Title: * C:\sandbox\spicelib\examples\testfiles\TRAN_rawtest.asc
Date: Wed Feb 12 08:39:46 2025
Plotname: Transient Analysis
Flags: real
Abscissa:     0.000000000000000e+00     5.000000000000000e-03                     
No. Variables: 5
No. Points: 1034                 
Command: QSPICE64, Build Feb 11 2025 08:06:48
.param temp=27
.alias I(R1) (0.001mho*V(in,out))
Variables:
	0	Time	time
	1	V(in)	voltage
	2	V(out)	voltage
	3	I(VIN)	current
	4	I(C1)	current
Values:
0		0.000000000000000e+00
	0.000000000000000e+00
	0.000000000000000e+00
	0.000000000000000e+00
	0.000000000000000e+00
1		1.000000000000000e-08
	1.000000000000000e+00
	9.999900000999989e-06
	-9.999900000999991e-04
	9.999900000999989e-04
2		2.000000000000000e-08
	1.000000000000000e+00
	1.999970000399994e-05
	-9.999800002999961e-04
	9.999800002999956e-04
3		4.000000000000000e-08
	1.000000000000000e+00
	3.999890002599943e-05
	-9.999600010999741e-04
	9.999600010999741e-04
4		8.000000000000000e-08
	1.000000000000000e+00
	7.999570019799150e-05
	-9.999200042998021e-04
	9.999200042998017e-04
5		1.600000000000000e-07
	1.000000000000000e+00
	1.599829015658662e-04
	-9.998400170984341e-04
	9.998400170984341e-04
6		3.200000000000000e-07
	1.000000000000000e+00
	3.199428283121490e-04
	-9.996800571716879e-04
	9.996800571716881e-04
7		6.400000000000000e-07
	1.000000000000000e+00
	6.397832285411988e-04
	-9.993602167714588e-04
	9.993602167714588e-04
8		1.280000000000000e-06
	1.000000000000000e+00
	1.279147424533963e-03
	-9.987208525754660e-04
	9.987208525754658e-04
9		2.560000000000000e-06
	1.000000000000000e+00
	2.556614327929539e-03
	-9.974433856720704e-04
	9.974433856720709e-04
10		5.120000000000000e-06
	1.000000000000000e+00
	5.106524511118647e-03
	-9.948934754888813e-04
	9.948934754888819e-04
11		1.000281250000000e-05
	1.000000000000000e+00
	9.951657317337723e-03
	-9.900483426826623e-04
	9.900483426826625e-04
12		1.488562500000000e-05
	1.000000000000000e+00
	1.477328529059937e-02
	-9.852267147094007e-04
	9.852267147093998e-04
13		1.976843750000000e-05
	1.000000000000000e+00
	1.957151296347215e-02
	-9.804284870365278e-04
	9.804284870365276e-04
14		2.465125000000000e-05
	1.000000000000000e+00
	2.434644539815847e-02
	-9.756535546018416e-04
	9.756535546018418e-04
15		2.953406250000000e-05
	1.000000000000000e+00
	2.909818807559867e-02
	-9.709018119244013e-04
	9.709018119244007e-04
16		3.441687500000000e-05
	1.000000000000000e+00
	3.382684679639874e-02
	-9.661731532036012e-04
	9.661731532035998e-04
17		3.929968750000000e-05
	1.000000000000000e+00
	3.853252759235083e-02
	-9.614674724076492e-04
	9.614674724076483e-04
18		4.418250000000000e-05
	1.000000000000000e+00
	4.321533664744314e-02
	-9.567846633525569e-04
	9.567846633525591e-04
19		4.906531250000000e-05
	1.000000000000000e+00
	4.787538022737030e-02
	-9.521246197726297e-04
	9.521246197726242e-04
20		5.394812499999999e-05
	1.000000000000000e+00
	5.251276461665799e-02
	-9.474872353833421e-04
	9.474872353833381e-04
21		5.883093749999999e-05
	1.000000000000000e+00
	5.712759606260776e-02
	-9.428724039373923e-04
	9.428724039373913e-04
22		6.371374999999999e-05
	1.000000000000000e+00
	6.171998072535009e-02
	-9.382800192746499e-04
	9.382800192746475e-04
23		6.859656249999999e-05
	1.000000000000000e+00
	6.629002463336849e-02
	-9.337099753666316e-04
	9.337099753666360e-04
24		7.347937500000000e-05
	1.000000000000000e+00
	7.083783364392282e-02
	-9.291621663560772e-04
	9.291621663560720e-04
25		7.836218750000000e-05
	1.000000000000000e+00
	7.536351340786036e-02
	-9.246364865921397e-04
	9.246364865921411e-04
26		8.324500000000001e-05
	1.000000000000000e+00
	7.986716933835572e-02
	-9.201328306616443e-04
	9.201328306616408e-04
27		8.812781250000001e-05
	1.000000000000000e+00
	8.434890658316890e-02
	-9.156510934168311e-04
	9.156510934168333e-04
28		9.301062500000002e-05
	1.000000000000000e+00
	8.880883000005352e-02
	-9.111911699999465e-04
	9.111911699999434e-04
29		9.789343750000002e-05
	1.000000000000000e+00
	9.324704413498522e-02
	-9.067529558650148e-04
	9.067529558650228e-04
30		1.027762500000000e-04
	1.000000000000000e+00
	9.766365320291508e-02
	-9.023363467970850e-04
	9.023363467970877e-04
31		1.076590625000000e-04
	1.000000000000000e+00
	1.020587610707835e-01
	-8.979412389292164e-04
	8.979412389292230e-04
32		1.125418750000000e-04
	1.000000000000000e+00
	1.064324712425575e-01
	-8.935675287574425e-04
	8.935675287574385e-04
33		1.174246875000000e-04
	1.000000000000000e+00
	1.107848868460790e-01
	-8.892151131539210e-04
	8.892151131539086e-04
34		1.223075000000000e-04
	1.000000000000000e+00
	1.151161106215341e-01
	-8.848838893784660e-04
	8.848838893784697e-04
35		1.271903125000000e-04
	1.000000000000000e+00
	1.194262449113730e-01
	-8.805737550886271e-04
	8.805737550886192e-04
36		1.320731250000000e-04
	1.000000000000000e+00
	1.237153916515282e-01
	-8.762846083484718e-04
	8.762846083484668e-04
37		1.369559375000000e-04
	1.000000000000000e+00
	1.279836523637940e-01
	-8.720163476362060e-04
	8.720163476362078e-04
38		1.418387500000000e-04
	1.000000000000000e+00
	1.322311281492449e-01
	-8.677688718507551e-04
	8.677688718507492e-04
39		1.467215625000000e-04
	1.000000000000000e+00
	1.364579196825834e-01
	-8.635420803174167e-04
	8.635420803174212e-04
40		1.516043750000001e-04
	1.000000000000000e+00
	1.406641272073199e-01
	-8.593358727926802e-04
	8.593358727926742e-04
41		1.564871875000001e-04
	1.000000000000000e+00
	1.448498505316948e-01
	-8.551501494683052e-04
	8.551501494682978e-04
42		1.613700000000001e-04
	1.000000000000000e+00
	1.490151890252663e-01
	-8.509848109747337e-04
	8.509848109747309e-04
43		1.662528125000001e-04
	1.000000000000000e+00
	1.531602416160915e-01
	-8.468397583839086e-04
	8.468397583839132e-04
44		1.711356250000001e-04
	1.000000000000000e+00
	1.572851067884384e-01
	-8.427148932115616e-04
	8.427148932115547e-04
45		1.760184375000001e-04
	1.000000000000000e+00
	1.613898825809733e-01
	-8.386101174190268e-04
	8.386101174190363e-04
46		1.809012500000001e-04
	1.000000000000000e+00
	1.654746665853707e-01
	-8.345253334146293e-04
	8.345253334146180e-04
47		1.857840625000001e-04
	1.000000000000000e+00
	1.695395559453026e-01
	-8.304604440546974e-04
	8.304604440547148e-04
48		1.906668750000001e-04
	1.000000000000000e+00
	1.735846473557642e-01
	-8.264153526442358e-04
	8.264153526442303e-04
49		1.955496875000001e-04
	1.000000000000000e+00
	1.776100370627023e-01
	-8.223899629372977e-04
	8.223899629372922e-04
50		2.004325000000001e-04
	1.000000000000000e+00
	1.816158208629121e-01
	-8.183841791370879e-04
	8.183841791371133e-04
51		2.053153125000001e-04
	1.000000000000000e+00
	1.856020941041730e-01
	-8.143979058958270e-04
	8.143979058958389e-04
52		2.101981250000001e-04
	1.000000000000000e+00
	1.895689516855983e-01
	-8.104310483144018e-04
	8.104310483144084e-04
53		2.150809375000001e-04
	1.000000000000000e+00
	1.935164880581752e-01
	-8.064835119418249e-04
	8.064835119418190e-04
54		2.199637500000001e-04
	1.000000000000000e+00
	1.974447972254739e-01
	-8.025552027745262e-04
	8.025552027745436e-04
55		2.248465625000001e-04
	1.000000000000000e+00
	2.013539727445063e-01
	-7.986460272554937e-04
	7.986460272554896e-04
56		2.297293750000001e-04
	1.000000000000000e+00
	2.052441077267197e-01
	-7.947558922732803e-04
	7.947558922732911e-04
57		2.346121875000001e-04
	1.000000000000000e+00
	2.091152948391075e-01
	-7.908847051608925e-04
	7.908847051608797e-04
58		2.394950000000001e-04
	1.000000000000000e+00
	2.129676263054263e-01
	-7.870323736945737e-04
	7.870323736945684e-04
59		2.443778125000001e-04
	1.000000000000000e+00
	2.168011939075055e-01
	-7.831988060924944e-04
	7.831988060924833e-04
60		2.492606250000001e-04
	1.000000000000000e+00
	2.206160889866391e-01
	-7.793839110133609e-04
	7.793839110133843e-04
61		2.541434375000001e-04
	1.000000000000000e+00
	2.244124024450501e-01
	-7.755875975549500e-04
	7.755875975549581e-04
62		2.590262500000001e-04
	1.000000000000000e+00
	2.281902247474193e-01
	-7.718097752525807e-04
	7.718097752525827e-04
63		2.639090625000001e-04
	1.000000000000000e+00
	2.319496459224700e-01
	-7.680503540775300e-04
	7.680503540775235e-04
64		2.687918750000001e-04
	1.000000000000000e+00
	2.356907555646021e-01
	-7.643092444353979e-04
	7.643092444354072e-04
65		2.736746875000001e-04
	1.000000000000000e+00
	2.394136428355691e-01
	-7.605863571644310e-04
	7.605863571644167e-04
66		2.785575000000001e-04
	1.000000000000000e+00
	2.431183964661932e-01
	-7.568816035338069e-04
	7.568816035338072e-04
67		2.834403125000001e-04
	1.000000000000000e+00
	2.468051047581127e-01
	-7.531948952418873e-04
	7.531948952418932e-04
68		2.883231250000001e-04
	1.000000000000000e+00
	2.504738555855572e-01
	-7.495261444144428e-04
	7.495261444144530e-04
69		2.932059375000002e-04
	1.000000000000000e+00
	2.541247363971481e-01
	-7.458752636028519e-04
	7.458752636028410e-04
70		2.980887500000002e-04
	1.000000000000000e+00
	2.577578342177185e-01
	-7.422421657822815e-04
	7.422421657822809e-04
71		3.029715625000002e-04
	1.000000000000000e+00
	2.613732356501517e-01
	-7.386267643498482e-04
	7.386267643498395e-04
72		3.078543750000002e-04
	1.000000000000000e+00
	2.649710268772336e-01
	-7.350289731227664e-04
	7.350289731227616e-04
73		3.127371875000002e-04
	1.000000000000000e+00
	2.685512936635173e-01
	-7.314487063364827e-04
	7.314487063364850e-04
74		3.176200000000002e-04
	1.000000000000000e+00
	2.721141213571984e-01
	-7.278858786428017e-04
	7.278858786427950e-04
75		3.225028125000002e-04
	1.000000000000000e+00
	2.756595948919967e-01
	-7.243404051080033e-04
	7.243404051079927e-04
76		3.273856250000002e-04
	1.000000000000000e+00
	2.791877987890456e-01
	-7.208122012109544e-04
	7.208122012109380e-04
77		3.322684375000002e-04
	1.000000000000000e+00
	2.826988171587840e-01
	-7.173011828412160e-04
	7.173011828412040e-04
78		3.371512500000002e-04
	1.000000000000000e+00
	2.861927337028531e-01
	-7.138072662971469e-04
	7.138072662971340e-04
79		3.420340625000002e-04
	1.000000000000000e+00
	2.896696317159937e-01
	-7.103303682840063e-04
	7.103303682840095e-04
80		3.469168750000002e-04
	1.000000000000000e+00
	2.931295940879437e-01
	-7.068704059120563e-04
	7.068704059120245e-04
81		3.517996875000002e-04
	1.000000000000000e+00
	2.965727033053366e-01
	-7.034272966946634e-04
	7.034272966946614e-04
82		3.566825000000002e-04
	1.000000000000000e+00
	2.999990414535973e-01
	-7.000009585464027e-04
	7.000009585464290e-04
83		3.615653125000002e-04
	1.000000000000000e+00
	3.034086902188359e-01
	-6.965913097811641e-04
	6.965913097811693e-04
84		3.664481250000002e-04
	1.000000000000000e+00
	3.068017308897393e-01
	-6.931982691102607e-04
	6.931982691102678e-04
85		3.713309375000002e-04
	1.000000000000000e+00
	3.101782443594580e-01
	-6.898217556405421e-04
	6.898217556405573e-04
86		3.762137500000002e-04
	1.000000000000000e+00
	3.135383111274900e-01
	-6.864616888725100e-04
	6.864616888724862e-04
87		3.810965625000002e-04
	1.000000000000000e+00
	3.168820113015593e-01
	-6.831179886984407e-04
	6.831179886984395e-04
88		3.859793750000002e-04
	1.000000000000000e+00
	3.202094245994895e-01
	-6.797905754005104e-04
	6.797905754005185e-04
89		3.908621875000002e-04
	1.000000000000000e+00
	3.235206303510718e-01
	-6.764793696489282e-04
	6.764793696489302e-04
90		3.957450000000002e-04
	1.000000000000000e+00
	3.268157074999271e-01
	-6.731842925000728e-04
	6.731842925000731e-04
91		4.006278125000002e-04
	1.000000000000000e+00
	3.300947346053625e-01
	-6.699052653946374e-04
	6.699052653946769e-04
92		4.055106250000003e-04
	1.000000000000000e+00
	3.333577898442205e-01
	-6.666422101557796e-04
	6.666422101557490e-04
93		4.103934375000003e-04
	1.000000000000000e+00
	3.366049510127219e-01
	-6.633950489872781e-04
	6.633950489872420e-04
94		4.152762500000003e-04
	1.000000000000000e+00
	3.398362955283025e-01
	-6.601637044716976e-04
	6.601637044716946e-04
95		4.201590625000003e-04
	1.000000000000000e+00
	3.430519004314412e-01
	-6.569480995685588e-04
	6.569480995685384e-04
96		4.250418750000003e-04
	1.000000000000000e+00
	3.462518423874824e-01
	-6.537481576125177e-04
	6.537481576125437e-04
97		4.299246875000003e-04
	1.000000000000000e+00
	3.494361976884501e-01
	-6.505638023115499e-04
	6.505638023115157e-04
98		4.348075000000003e-04
	1.000000000000000e+00
	3.526050422548547e-01
	-6.473949577451453e-04
	6.473949577451843e-04
99		4.396903125000003e-04
	1.000000000000000e+00
	3.557584516374928e-01
	-6.442415483625072e-04
	6.442415483624564e-04
100		4.445731250000003e-04
	1.000000000000000e+00
	3.588965010192377e-01
	-6.411034989807624e-04
	6.411034989807496e-04
101		4.494559375000003e-04
	1.000000000000000e+00
	3.620192652168249e-01
	-6.379807347831751e-04
	6.379807347831612e-04
102		4.543387500000003e-04
	1.000000000000000e+00
	3.651268186826265e-01
	-6.348731813173734e-04
	6.348731813173858e-04
103		4.592215625000003e-04
	1.000000000000000e+00
	3.682192355064204e-01
	-6.317807644935795e-04
	6.317807644935780e-04
104		4.641043750000003e-04
	1.000000000000000e+00
	3.712965894171498e-01
	-6.287034105828503e-04
	6.287034105828537e-04
105		4.689871875000003e-04
	1.000000000000000e+00
	3.743589537846760e-01
	-6.256410462153240e-04
	6.256410462153195e-04
106		4.738700000000003e-04
	1.000000000000000e+00
	3.774064016215223e-01
	-6.225935983784777e-04
	6.225935983784348e-04
107		4.787528125000003e-04
	1.000000000000000e+00
	3.804390055846107e-01
	-6.195609944153893e-04
	6.195609944153746e-04
108		4.836356250000003e-04
	1.000000000000000e+00
	3.834568379769900e-01
	-6.165431620230100e-04
	6.165431620230033e-04
109		4.885184375000003e-04
	1.000000000000000e+00
	3.864599707495558e-01
	-6.135400292504442e-04
	6.135400292504589e-04
110		4.934012500000003e-04
	1.000000000000000e+00
	3.894484755027631e-01
	-6.105515244972369e-04
	6.105515244972382e-04
111		4.982840625000003e-04
	1.000000000000000e+00
	3.924224234883302e-01
	-6.075775765116698e-04
	6.075775765116975e-04
112		5.031668750000003e-04
	1.000000000000000e+00
	3.953818856109352e-01
	-6.046181143890648e-04
	6.046181143890550e-04
113		5.080496875000003e-04
	1.000000000000000e+00
	3.983269324299040e-01
	-6.016730675700961e-04
	6.016730675700854e-04
114		5.129325000000003e-04
	1.000000000000000e+00
	4.012576341608906e-01
	-5.987423658391094e-04
	5.987423658390945e-04
115		5.178153125000003e-04
	1.000000000000000e+00
	4.041740606775494e-01
	-5.958259393224507e-04
	5.958259393224197e-04
116		5.226981250000003e-04
	1.000000000000000e+00
	4.070762815131994e-01
	-5.929237184868006e-04
	5.929237184868208e-04
117		5.275809375000003e-04
	1.000000000000000e+00
	4.099643658624803e-01
	-5.900356341375198e-04
	5.900356341374813e-04
118		5.324637500000003e-04
	1.000000000000000e+00
	4.128383825830012e-01
	-5.871616174169988e-04
	5.871616174170091e-04
119		5.373465625000003e-04
	1.000000000000000e+00
	4.156984001969813e-01
	-5.843015998030187e-04
	5.843015998030499e-04
120		5.422293750000003e-04
	1.000000000000000e+00
	4.185444868928818e-01
	-5.814555131071182e-04
	5.814555131071208e-04
121		5.471121875000003e-04
	1.000000000000000e+00
	4.213767105270313e-01
	-5.786232894729687e-04
	5.786232894729459e-04
122		5.519950000000003e-04
	1.000000000000000e+00
	4.241951386252427e-01
	-5.758048613747573e-04
	5.758048613747346e-04
123		5.568778125000003e-04
	1.000000000000000e+00
	4.269998383844225e-01
	-5.730001616155776e-04
	5.730001616155722e-04
124		5.617606250000003e-04
	1.000000000000000e+00
	4.297908766741717e-01
	-5.702091233258283e-04
	5.702091233258100e-04
125		5.666434375000003e-04
	1.000000000000000e+00
	4.325683200383801e-01
	-5.674316799616199e-04
	5.674316799616219e-04
126		5.715262500000003e-04
	1.000000000000000e+00
	4.353322346968120e-01
	-5.646677653031880e-04
	5.646677653032284e-04
127		5.764090625000003e-04
	1.000000000000000e+00
	4.380826865466839e-01
	-5.619173134533161e-04
	5.619173134532862e-04
128		5.812918750000004e-04
	1.000000000000000e+00
	4.408197411642366e-01
	-5.591802588357634e-04
	5.591802588357786e-04
129		5.861746875000004e-04
	1.000000000000000e+00
	4.435434638062974e-01
	-5.564565361937026e-04
	5.564565361937390e-04
130		5.910575000000004e-04
	1.000000000000000e+00
	4.462539194118355e-01
	-5.537460805881645e-04
	5.537460805882244e-04
131		5.959403125000004e-04
	1.000000000000000e+00
	4.489511726035099e-01
	-5.510488273964901e-04
	5.510488273965108e-04
132		6.008231250000004e-04
	1.000000000000000e+00
	4.516352876892102e-01
	-5.483647123107897e-04
	5.483647123108171e-04
133		6.057059375000004e-04
	1.000000000000000e+00
	4.543063286635898e-01
	-5.456936713364102e-04
	5.456936713364446e-04
134		6.105887500000004e-04
	1.000000000000000e+00
	4.569643592095908e-01
	-5.430356407904091e-04
	5.430356407903625e-04
135		6.154715625000004e-04
	1.000000000000000e+00
	4.596094426999625e-01
	-5.403905573000376e-04
	5.403905573000412e-04
136		6.203543750000004e-04
	1.000000000000000e+00
	4.622416421987720e-01
	-5.377583578012280e-04
	5.377583578012601e-04
137		6.252371875000004e-04
	1.000000000000000e+00
	4.648610204629079e-01
	-5.351389795370921e-04
	5.351389795371364e-04
138		6.301200000000004e-04
	1.000000000000000e+00
	4.674676399435759e-01
	-5.325323600564241e-04
	5.325323600564036e-04
139		6.350028125000004e-04
	1.000000000000000e+00
	4.700615627877879e-01
	-5.299384372122122e-04
	5.299384372122184e-04
140		6.398856250000004e-04
	1.000000000000000e+00
	4.726428508398439e-01
	-5.273571491601561e-04
	5.273571491601348e-04
141		6.447684375000004e-04
	1.000000000000000e+00
	4.752115656428059e-01
	-5.247884343571941e-04
	5.247884343572151e-04
142		6.496512500000004e-04
	1.000000000000000e+00
	4.777677684399654e-01
	-5.222322315600346e-04
	5.222322315600048e-04
143		6.545340625000004e-04
	1.000000000000000e+00
	4.803115201763033e-01
	-5.196884798236968e-04
	5.196884798237267e-04
144		6.594168750000004e-04
	1.000000000000000e+00
	4.828428814999429e-01
	-5.171571185000571e-04
	5.171571185000612e-04
145		6.642996875000004e-04
	1.000000000000000e+00
	4.853619127635959e-01
	-5.146380872364042e-04
	5.146380872363965e-04
146		6.691825000000004e-04
	1.000000000000000e+00
	4.878686740260013e-01
	-5.121313259739987e-04
	5.121313259739968e-04
147		6.740653125000004e-04
	1.000000000000000e+00
	4.903632250533572e-01
	-5.096367749466428e-04
	5.096367749465869e-04
148		6.789481250000004e-04
	1.000000000000000e+00
	4.928456253207456e-01
	-5.071543746792544e-04
	5.071543746792417e-04
149		6.838309375000004e-04
	1.000000000000000e+00
	4.953159340135505e-01
	-5.046840659864495e-04
	5.046840659864715e-04
150		6.887137500000004e-04
	1.000000000000000e+00
	4.977742100288690e-01
	-5.022257899711310e-04
	5.022257899711113e-04
151		6.935965625000005e-04
	1.000000000000000e+00
	5.002205119769154e-01
	-4.997794880230846e-04
	4.997794880231277e-04
152		6.984793750000005e-04
	1.000000000000000e+00
	5.026548981824183e-01
	-4.973451018175818e-04
	4.973451018175368e-04
153		7.033621875000005e-04
	1.000000000000000e+00
	5.050774266860115e-01
	-4.949225733139885e-04
	4.949225733139329e-04
154		7.082450000000005e-04
	1.000000000000000e+00
	5.074881552456180e-01
	-4.925118447543821e-04
	4.925118447543231e-04
155		7.131278125000005e-04
	1.000000000000000e+00
	5.098871413378266e-01
	-4.901128586621734e-04
	4.901128586621839e-04
156		7.180106250000005e-04
	1.000000000000000e+00
	5.122744421592623e-01
	-4.877255578407377e-04
	4.877255578407125e-04
157		7.228934375000005e-04
	1.000000000000000e+00
	5.146501146279497e-01
	-4.853498853720502e-04
	4.853498853720495e-04
158		7.277762500000005e-04
	1.000000000000000e+00
	5.170142153846708e-01
	-4.829857846153292e-04
	4.829857846153640e-04
159		7.326590625000005e-04
	1.000000000000000e+00
	5.193668007943150e-01
	-4.806331992056850e-04
	4.806331992056878e-04
160		7.375418750000005e-04
	1.000000000000000e+00
	5.217079269472222e-01
	-4.782920730527778e-04
	4.782920730527496e-04
161		7.424246875000005e-04
	1.000000000000000e+00
	5.240376496605218e-01
	-4.759623503394783e-04
	4.759623503394761e-04
162		7.473075000000005e-04
	1.000000000000000e+00
	5.263560244794619e-01
	-4.736439755205381e-04
	4.736439755205490e-04
163		7.521903125000005e-04
	1.000000000000000e+00
	5.286631066787344e-01
	-4.713368933212656e-04
	4.713368933212392e-04
164		7.570731250000005e-04
	1.000000000000000e+00
	5.309589512637923e-01
	-4.690410487362077e-04
	4.690410487361851e-04
165		7.619559375000005e-04
	1.000000000000000e+00
	5.332436129721619e-01
	-4.667563870278381e-04
	4.667563870278391e-04
166		7.668387500000005e-04
	1.000000000000000e+00
	5.355171462747470e-01
	-4.644828537252530e-04
	4.644828537252454e-04
167		7.717215625000005e-04
	1.000000000000000e+00
	5.377796053771281e-01
	-4.622203946228719e-04
	4.622203946228753e-04
168		7.766043750000005e-04
	1.000000000000000e+00
	5.400310442208552e-01
	-4.599689557791448e-04
	4.599689557792108e-04
169		7.814871875000005e-04
	1.000000000000000e+00
	5.422715164847328e-01
	-4.577284835152672e-04
	4.577284835152462e-04
170		7.863700000000005e-04
	1.000000000000000e+00
	5.445010755861001e-01
	-4.554989244139000e-04
	4.554989244139329e-04
171		7.912528125000005e-04
	1.000000000000000e+00
	5.467197746821049e-01
	-4.532802253178951e-04
	4.532802253178758e-04
172		7.961356250000005e-04
	1.000000000000000e+00
	5.489276666709710e-01
	-4.510723333290289e-04
	4.510723333290556e-04
173		8.010184375000005e-04
	1.000000000000000e+00
	5.511248041932592e-01
	-4.488751958067409e-04
	4.488751958067472e-04
174		8.059012500000006e-04
	1.000000000000000e+00
	5.533112396331218e-01
	-4.466887603668782e-04
	4.466887603669090e-04
175		8.107840625000006e-04
	1.000000000000000e+00
	5.554870251195525e-01
	-4.445129748804475e-04
	4.445129748804066e-04
176		8.156668750000006e-04
	1.000000000000000e+00
	5.576522125276290e-01
	-4.423477874723710e-04
	4.423477874724024e-04
177		8.205496875000006e-04
	1.000000000000000e+00
	5.598068534797491e-01
	-4.401931465202509e-04
	4.401931465202458e-04
178		8.254325000000006e-04
	1.000000000000000e+00
	5.619509993468623e-01
	-4.380490006531377e-04
	4.380490006531124e-04
179		8.303153125000006e-04
	1.000000000000000e+00
	5.640847012496945e-01
	-4.359152987503056e-04
	4.359152987503390e-04
180		8.351981250000006e-04
	1.000000000000000e+00
	5.662080100599662e-01
	-4.337919899400338e-04
	4.337919899400633e-04
181		8.400809375000006e-04
	1.000000000000000e+00
	5.683209764016064e-01
	-4.316790235983937e-04
	4.316790235984469e-04
182		8.449637500000006e-04
	1.000000000000000e+00
	5.704236506519580e-01
	-4.295763493480420e-04
	4.295763493479821e-04
183		8.498465625000006e-04
	1.000000000000000e+00
	5.725160829429806e-01
	-4.274839170570194e-04
	4.274839170570477e-04
184		8.547293750000006e-04
	1.000000000000000e+00
	5.745983231624450e-01
	-4.254016768375550e-04
	4.254016768375224e-04
185		8.596121875000006e-04
	1.000000000000000e+00
	5.766704209551222e-01
	-4.233295790448778e-04
	4.233295790448677e-04
186		8.644950000000006e-04
	1.000000000000000e+00
	5.787324257239682e-01
	-4.212675742760318e-04
	4.212675742761018e-04
187		8.693778125000006e-04
	1.000000000000000e+00
	5.807843866313006e-01
	-4.192156133686994e-04
	4.192156133686620e-04
188		8.742606250000006e-04
	1.000000000000000e+00
	5.828263525999711e-01
	-4.171736474000289e-04
	4.171736474000431e-04
189		8.791434375000006e-04
	1.000000000000000e+00
	5.848583723145325e-01
	-4.151416276854675e-04
	4.151416276854669e-04
190		8.840262500000006e-04
	1.000000000000000e+00
	5.868804942223990e-01
	-4.131195057776010e-04
	4.131195057776316e-04
191		8.889090625000006e-04
	1.000000000000000e+00
	5.888927665350008e-01
	-4.111072334649993e-04
	4.111072334650190e-04
192		8.937918750000006e-04
	1.000000000000000e+00
	5.908952372289346e-01
	-4.091047627710655e-04
	4.091047627710898e-04
193		8.986746875000006e-04
	1.000000000000000e+00
	5.928879540471065e-01
	-4.071120459528936e-04
	4.071120459528954e-04
194		9.035575000000006e-04
	1.000000000000000e+00
	5.948709644998710e-01
	-4.051290355001290e-04
	4.051290355000792e-04
195		9.084403125000006e-04
	1.000000000000000e+00
	5.968443158661632e-01
	-4.031556841338368e-04
	4.031556841338491e-04
196		9.133231250000006e-04
	1.000000000000000e+00
	5.988080551946267e-01
	-4.011919448053733e-04
	4.011919448053680e-04
197		9.182059375000007e-04
	1.000000000000000e+00
	6.007622293047346e-01
	-3.992377706952654e-04
	3.992377706952821e-04
198		9.230887500000007e-04
	1.000000000000000e+00
	6.027068847879059e-01
	-3.972931152120942e-04
	3.972931152121106e-04
199		9.279715625000007e-04
	1.000000000000000e+00
	6.046420680086166e-01
	-3.953579319913834e-04
	3.953579319914136e-04
200		9.328543750000007e-04
	1.000000000000000e+00
	6.065678251055051e-01
	-3.934321748944949e-04
	3.934321748945147e-04
201		9.377371875000007e-04
	1.000000000000000e+00
	6.084842019924721e-01
	-3.915157980075279e-04
	3.915157980075024e-04
202		9.426200000000007e-04
	1.000000000000000e+00
	6.103912443597753e-01
	-3.896087556402247e-04
	3.896087556401751e-04
203		9.475028125000007e-04
	1.000000000000000e+00
	6.122889976751190e-01
	-3.877110023248810e-04
	3.877110023248753e-04
204		9.523856250000007e-04
	1.000000000000000e+00
	6.141775071847378e-01
	-3.858224928152622e-04
	3.858224928152687e-04
205		9.572684375000007e-04
	1.000000000000000e+00
	6.160568179144754e-01
	-3.839431820855246e-04
	3.839431820855110e-04
206		9.621512500000007e-04
	1.000000000000000e+00
	6.179269746708583e-01
	-3.820730253291417e-04
	3.820730253291105e-04
207		9.670340625000007e-04
	1.000000000000000e+00
	6.197880220421640e-01
	-3.802119779578360e-04
	3.802119779578450e-04
208		9.719168750000007e-04
	1.000000000000000e+00
	6.216400043994837e-01
	-3.783599956005163e-04
	3.783599956004857e-04
209		9.767996875000007e-04
	1.000000000000000e+00
	6.234829658977811e-01
	-3.765170341022189e-04
	3.765170341022417e-04
210		9.816825000000006e-04
	1.000000000000000e+00
	6.253169504769440e-01
	-3.746830495230560e-04
	3.746830495230391e-04
211		9.865653125000005e-04
	1.000000000000000e+00
	6.271420018628331e-01
	-3.728579981371669e-04
	3.728579981371882e-04
212		9.914481250000004e-04
	1.000000000000000e+00
	6.289581635683235e-01
	-3.710418364316765e-04
	3.710418364316626e-04
213		9.963309375000003e-04
	1.000000000000000e+00
	6.307654788943422e-01
	-3.692345211056578e-04
	3.692345211057102e-04
214		1.001213750000000e-03
	1.000000000000000e+00
	6.325639909309015e-01
	-3.674360090690985e-04
	3.674360090691331e-04
215		1.006096562500000e-03
	1.000000000000000e+00
	6.343537425581256e-01
	-3.656462574418744e-04
	3.656462574419539e-04
216		1.010979375000000e-03
	1.000000000000000e+00
	6.361347764472728e-01
	-3.638652235527272e-04
	3.638652235527506e-04
217		1.015862187500000e-03
	1.000000000000000e+00
	6.379071350617528e-01
	-3.620928649382473e-04
	3.620928649383237e-04
218		1.020745000000000e-03
	1.000000000000000e+00
	6.396708606581397e-01
	-3.603291393418603e-04
	3.603291393418639e-04
219		1.025627812500000e-03
	1.000000000000000e+00
	6.414259952871794e-01
	-3.585740047128207e-04
	3.585740047128416e-04
220		1.030510625000000e-03
	1.000000000000000e+00
	6.431725807947914e-01
	-3.568274192052085e-04
	3.568274192051746e-04
221		1.035393437499999e-03
	1.000000000000000e+00
	6.449106588230681e-01
	-3.550893411769319e-04
	3.550893411769507e-04
222		1.040276249999999e-03
	1.000000000000000e+00
	6.466402708112654e-01
	-3.533597291887346e-04
	3.533597291887070e-04
223		1.045159062499999e-03
	1.000000000000000e+00
	6.483614579967925e-01
	-3.516385420032075e-04
	3.516385420032075e-04
224		1.050041874999999e-03
	1.000000000000000e+00
	6.500742614161943e-01
	-3.499257385838057e-04
	3.499257385837784e-04
225		1.054924687499999e-03
	1.000000000000000e+00
	6.517787219061298e-01
	-3.482212780938702e-04
	3.482212780938632e-04
226		1.059807499999999e-03
	1.000000000000000e+00
	6.534748801043465e-01
	-3.465251198956535e-04
	3.465251198956909e-04
227		1.064690312499999e-03
	1.000000000000000e+00
	6.551627764506479e-01
	-3.448372235493521e-04
	3.448372235493880e-04
228		1.069573124999999e-03
	1.000000000000000e+00
	6.568424511878586e-01
	-3.431575488121414e-04
	3.431575488122007e-04
229		1.074455937499999e-03
	1.000000000000000e+00
	6.585139443627838e-01
	-3.414860556372162e-04
	3.414860556372190e-04
230		1.079338749999999e-03
	1.000000000000000e+00
	6.601772958271640e-01
	-3.398227041728360e-04
	3.398227041728763e-04
231		1.084221562499998e-03
	1.000000000000000e+00
	6.618325452386246e-01
	-3.381674547613755e-04
	3.381674547613955e-04
232		1.089104374999998e-03
	1.000000000000000e+00
	6.634797320616219e-01
	-3.365202679383781e-04
	3.365202679384005e-04
233		1.093987187499998e-03
	1.000000000000000e+00
	6.651188955683845e-01
	-3.348811044316155e-04
	3.348811044315281e-04
234		1.098869999999998e-03
	1.000000000000000e+00
	6.667500748398488e-01
	-3.332499251601512e-04
	3.332499251601506e-04
235		1.103752812499998e-03
	1.000000000000000e+00
	6.683733087665910e-01
	-3.316266912334091e-04
	3.316266912334331e-04
236		1.108635624999998e-03
	1.000000000000000e+00
	6.699886360497542e-01
	-3.300113639502458e-04
	3.300113639502222e-04
237		1.113518437499998e-03
	1.000000000000000e+00
	6.715960952019717e-01
	-3.284039047980283e-04
	3.284039047980469e-04
238		1.118401249999998e-03
	1.000000000000000e+00
	6.731957245482847e-01
	-3.268042754517153e-04
	3.268042754517309e-04
239		1.123284062499998e-03
	1.000000000000000e+00
	6.747875622270558e-01
	-3.252124377729442e-04
	3.252124377728927e-04
240		1.128166874999997e-03
	1.000000000000000e+00
	6.763716461908794e-01
	-3.236283538091206e-04
	3.236283538092244e-04
241		1.133049687499997e-03
	1.000000000000000e+00
	6.779480142074850e-01
	-3.220519857925151e-04
	3.220519857924931e-04
242		1.137932499999997e-03
	1.000000000000000e+00
	6.795167038606390e-01
	-3.204832961393610e-04
	3.204832961393733e-04
243		1.142815312499997e-03
	1.000000000000000e+00
	6.810777525510402e-01
	-3.189222474489598e-04
	3.189222474489495e-04
244		1.147698124999997e-03
	1.000000000000000e+00
	6.826311974972112e-01
	-3.173688025027888e-04
	3.173688025027710e-04
245		1.152580937499997e-03
	1.000000000000000e+00
	6.841770757363871e-01
	-3.158229242636129e-04
	3.158229242636312e-04
246		1.157463749999997e-03
	1.000000000000000e+00
	6.857154241253965e-01
	-3.142845758746035e-04
	3.142845758746238e-04