Title: C:\users\meeee\Documents\workspace\spicelib\examples\testfiles\tran_rawtest.net
Date: Tue Feb 11 21:15:58 2025
Plotname: Transient Analysis
Flags: real forward
No. Variables: 6
No. Points:         1049
Offset:    0.0000000000000000e+00
Command: Linear Technology Corporation LTspice
Variables:
	0	time	time
	1	V(out)	voltage
	2	V(in)	voltage
	3	I(Vin)	device_current
	4	I(C1)	device_current
	5	I(R1)	device_current
Values:
0		0.000000000000000e+00
	0.000000000000000e+00
	0.000000000000000e+00
	0.000000000000000e+00
	0.000000000000000e+00
	0.000000000000000e+00
1		9.999999439624929e-11
	9.999997879250157e-10
	9.999999439624929e-03
	-9.999998439625142e-06
	9.999998439625142e-06
	9.999998439625142e-06
2		1.079999964445495e-10
	1.086399798511096e-09
	1.079999964445495e-02
	-1.079999855805515e-05
	1.079999855805515e-05
	1.079999855805515e-05
3		1.240000005411498e-10
	1.271999824753016e-09
	1.240000005411498e-02
	-1.239999878211515e-05
	1.239999878211513e-05
	1.239999878211515e-05
4		1.560000087343504e-10
	1.719999906426622e-09
	1.560000087343504e-02
	-1.559999915343514e-05
	1.559999915343514e-05
	1.559999915343514e-05
5		2.200000251207517e-10
	2.923200174244881e-09
	2.200000251207518e-02
	-2.199999958887500e-05
	2.199999958887499e-05
	2.199999958887500e-05
6		3.480000578935544e-10
	6.558401029461539e-09
	3.480000578935544e-02
	-3.479999923095441e-05
	3.479999923095441e-05
	3.479999923095441e-05
7		6.040001234391596e-10
	1.874400323178311e-08
	6.040001234391596e-02
	-6.039999359991273e-05
	6.039999359991269e-05
	6.039999359991273e-05
8		1.116000254530370e-09
	6.277600331252264e-08
	1.116000254530370e-01
	-1.115999626770337e-04
	1.115999626770337e-04
	1.115999626770337e-04
9		2.140000516712791e-09
	2.294831358467632e-07
	2.140000516712791e-01
	-2.139998221881433e-04
	2.139998221881433e-04
	2.139998221881433e-04
10		4.188001041077633e-09
	8.774695277537618e-07
	4.188001041077633e-01
	-4.187992266382355e-04
	4.187992266382357e-04
	4.187992266382355e-04
11		8.284002089807317e-09
	3.431727597709023e-06
	8.284002089807317e-01
	-8.283967772531340e-04
	8.283967772531342e-04
	8.283967772531340e-04
12		1.000000000000000e-08
	5.000485831682112e-06
	1.000000000000000e+00
	-9.999949995141684e-04
	9.999949995141682e-04
	9.999949995141684e-04
13		1.081920020974594e-08
	5.819681273943928e-06
	1.000000000000000e+00
	-9.999941803187260e-04
	9.999941803187267e-04
	9.999941803187262e-04
14		1.245760062923781e-08
	7.458070816298504e-06
	1.000000000000000e+00
	-9.999925419291837e-04
	9.999925419291837e-04
	9.999925419291837e-04
15		1.573440146822156e-08
	1.073484184800651e-05
	1.000000000000000e+00
	-9.999892651581521e-04
	9.999892651581521e-04
	9.999892651581521e-04
16		2.228800314618905e-08
	1.728835169954988e-05
	1.000000000000000e+00
	-9.999827116483006e-04
	9.999827116483001e-04
	9.999827116483004e-04
17		3.539520650212404e-08
	3.039524255620153e-05
	1.000000000000000e+00
	-9.999696047574439e-04
	9.999696047574436e-04
	9.999696047574439e-04
18		6.160961321399401e-08
	5.660850889220851e-05
	1.000000000000000e+00
	-9.999433914911079e-04
	9.999433914911074e-04
	9.999433914911079e-04
19		1.140384266377340e-07
	1.090329801225870e-04
	1.000000000000000e+00
	-9.998909670198774e-04
	9.998909670198780e-04
	9.998909670198774e-04
20		2.188960534852138e-07
	2.138736773571687e-04
	1.000000000000000e+00
	-9.997861263226428e-04
	9.997861263226424e-04
	9.997861263226428e-04
21		4.286113071801736e-07
	4.235220952440509e-04
	1.000000000000000e+00
	-9.995764779047560e-04
	9.995764779047564e-04
	9.995764779047560e-04
22		8.480418145700932e-07
	8.426870592599029e-04
	1.000000000000000e+00
	-9.991573129407400e-04
	9.991573129407398e-04
	9.991573129407400e-04
23		1.686902829349932e-06
	1.680489776699201e-03
	1.000000000000000e+00
	-9.983195102233008e-04
	9.983195102233004e-04
	9.983195102233008e-04
24		3.364624858909611e-06
	3.353988578636835e-03
	1.000000000000000e+00
	-9.966460114213631e-04
	9.966460114213629e-04
	9.966460114213631e-04
25		6.720068918028968e-06
	6.692577292872140e-03
	1.000000000000000e+00
	-9.933074227071279e-04
	9.933074227071281e-04
	9.933074227071279e-04
26		1.160288141802897e-05
	1.153089888423662e-02
	1.000000000000000e+00
	-9.884691011157634e-04
	9.884691011157630e-04
	9.884691011157634e-04
27		1.648569391802897e-05
	1.634565339527298e-02
	1.000000000000000e+00
	-9.836543466047269e-04
	9.836543466047272e-04
	9.836543466047272e-04
28		2.136850641802897e-05
	2.113695561935836e-02
	1.000000000000000e+00
	-9.788630443806417e-04
	9.788630443806432e-04
	9.788630443806417e-04
29		2.625131891802897e-05
	2.590491979072047e-02
	1.000000000000000e+00
	-9.740950802092796e-04
	9.740950802092797e-04
	9.740950802092796e-04
30		3.113413141802897e-05
	3.064965958716119e-02
	1.000000000000000e+00
	-9.693503404128389e-04
	9.693503404128376e-04
	9.693503404128389e-04
31		3.601694391802897e-05
	3.537128813276684e-02
	1.000000000000000e+00
	-9.646287118672332e-04
	9.646287118672322e-04
	9.646287118672333e-04
32		4.089975641802896e-05
	4.006991800060529e-02
	1.000000000000000e+00
	-9.599300819993947e-04
	9.599300819993929e-04
	9.599300819993947e-04
33		4.578256891802896e-05
	4.474566121540994e-02
	1.000000000000000e+00
	-9.552543387845901e-04
	9.552543387845898e-04
	9.552543387845901e-04
34		5.066538141802896e-05
	4.939862925625062e-02
	1.000000000000000e+00
	-9.506013707437494e-04
	9.506013707437505e-04
	9.506013707437494e-04
35		5.554819391802896e-05
	5.402893305919144e-02
	1.000000000000000e+00
	-9.459710669408086e-04
	9.459710669408074e-04
	9.459710669408086e-04
36		6.043100641802895e-05
	5.863668301993576e-02
	1.000000000000000e+00
	-9.413633169800642e-04
	9.413633169800643e-04
	9.413633169800642e-04
37		6.531381891802896e-05
	6.322198899645823e-02
	1.000000000000000e+00
	-9.367780110035418e-04
	9.367780110035411e-04
	9.367780110035418e-04
38		7.019663141802896e-05
	6.778496031162402e-02
	1.000000000000000e+00
	-9.322150396883760e-04
	9.322150396883742e-04
	9.322150396883760e-04
39		7.507944391802897e-05
	7.232570575579537e-02
	1.000000000000000e+00
	-9.276742942442046e-04
	9.276742942442018e-04
	9.276742942442047e-04
40		7.996225641802897e-05
	7.684433358942522e-02
	1.000000000000000e+00
	-9.231556664105748e-04
	9.231556664105744e-04
	9.231556664105748e-04
41		8.484506891802898e-05
	8.134095154563845e-02
	1.000000000000000e+00
	-9.186590484543616e-04
	9.186590484543608e-04
	9.186590484543616e-04
42		8.972788141802898e-05
	8.581566683280045e-02
	1.000000000000000e+00
	-9.141843331671995e-04
	9.141843331672006e-04
	9.141843331671995e-04
43		9.461069391802899e-05
	9.026858613707323e-02
	1.000000000000000e+00
	-9.097314138629268e-04
	9.097314138629270e-04
	9.097314138629268e-04
44		9.949350641802899e-05
	9.469981562495890e-02
	1.000000000000000e+00
	-9.053001843750411e-04
	9.053001843750408e-04
	9.053001843750411e-04
45		1.043763189180290e-04
	9.910946094583101e-02
	1.000000000000000e+00
	-9.008905390541690e-04
	9.008905390541708e-04
	9.008905390541690e-04
46		1.092591314180290e-04
	1.034976272344534e-01
	1.000000000000000e+00
	-8.965023727655467e-04
	8.965023727655480e-04
	8.965023727655467e-04
47		1.141419439180290e-04
	1.078644191134867e-01
	1.000000000000000e+00
	-8.921355808865133e-04
	8.921355808865078e-04
	8.921355808865132e-04
48		1.190247564180290e-04
	1.122099406959832e-01
	1.000000000000000e+00
	-8.877900593040168e-04
	8.877900593040125e-04
	8.877900593040169e-04
49		1.239075689180290e-04
	1.165342955878683e-01
	1.000000000000000e+00
	-8.834657044121318e-04
	8.834657044121258e-04
	8.834657044121317e-04
50		1.287903814180290e-04
	1.208375868904116e-01
	1.000000000000000e+00
	-8.791624131095885e-04
	8.791624131095840e-04
	8.791624131095885e-04
51		1.336731939180290e-04
	1.251199172026843e-01
	1.000000000000000e+00
	-8.748800827973157e-04
	8.748800827973122e-04
	8.748800827973157e-04
52		1.385560064180290e-04
	1.293813886240058e-01
	1.000000000000000e+00
	-8.706186113759942e-04
	8.706186113759951e-04
	8.706186113759942e-04
53		1.434388189180290e-04
	1.336221027563780e-01
	1.000000000000000e+00
	-8.663778972436221e-04
	8.663778972436212e-04
	8.663778972436221e-04
54		1.483216314180290e-04
	1.378421607069071e-01
	1.000000000000000e+00
	-8.621578392930929e-04
	8.621578392930956e-04
	8.621578392930930e-04
55		1.532044439180290e-04
	1.420416630902148e-01
	1.000000000000000e+00
	-8.579583369097851e-04
	8.579583369097907e-04
	8.579583369097851e-04
56		1.580872564180290e-04
	1.462207100308373e-01
	1.000000000000000e+00
	-8.537792899691627e-04
	8.537792899691588e-04
	8.537792899691628e-04
57		1.629700689180290e-04
	1.503794011656115e-01
	1.000000000000000e+00
	-8.496205988343885e-04
	8.496205988343872e-04
	8.496205988343885e-04
58		1.678528814180291e-04
	1.545178356460518e-01
	1.000000000000000e+00
	-8.454821643539483e-04
	8.454821643539348e-04
	8.454821643539483e-04
59		1.727356939180291e-04
	1.586361121407131e-01
	1.000000000000000e+00
	-8.413638878592870e-04
	8.413638878592838e-04
	8.413638878592870e-04
60		1.776185064180291e-04
	1.627343288375435e-01
	1.000000000000000e+00
	-8.372656711624566e-04
	8.372656711624488e-04
	8.372656711624565e-04
61		1.825013189180291e-04
	1.668125834462257e-01
	1.000000000000000e+00
	-8.331874165537743e-04
	8.331874165537767e-04
	8.331874165537743e-04
62		1.873841314180291e-04
	1.708709732005061e-01
	1.000000000000000e+00
	-8.291290267994939e-04
	8.291290267994911e-04
	8.291290267994939e-04
63		1.922669439180291e-04
	1.749095948605134e-01
	1.000000000000000e+00
	-8.250904051394865e-04
	8.250904051394781e-04
	8.250904051394865e-04
64		1.971497564180291e-04
	1.789285447150653e-01
	1.000000000000000e+00
	-8.210714552849348e-04
	8.210714552849413e-04
	8.210714552849348e-04
65		2.020325689180291e-04
	1.829279185839642e-01
	1.000000000000000e+00
	-8.170720814160359e-04
	8.170720814160426e-04
	8.170720814160359e-04
66		2.069153814180291e-04
	1.869078118202820e-01
	1.000000000000000e+00
	-8.130921881797180e-04
	8.130921881797093e-04
	8.130921881797180e-04
67		2.117981939180291e-04
	1.908683193126333e-01
	1.000000000000000e+00
	-8.091316806873668e-04
	8.091316806873583e-04
	8.091316806873668e-04
68		2.166810064180291e-04
	1.948095354874378e-01
	1.000000000000000e+00
	-8.051904645125622e-04
	8.051904645125646e-04
	8.051904645125623e-04
69		2.215638189180291e-04
	1.987315543111716e-01
	1.000000000000000e+00
	-8.012684456888283e-04
	8.012684456888269e-04
	8.012684456888283e-04
70		2.264466314180291e-04
	2.026344692926077e-01
	1.000000000000000e+00
	-7.973655307073923e-04
	7.973655307073890e-04
	7.973655307073923e-04
71		2.313294439180291e-04
	2.065183734850451e-01
	1.000000000000000e+00
	-7.934816265149549e-04
	7.934816265149497e-04
	7.934816265149549e-04
72		2.362122564180291e-04
	2.103833594885275e-01
	1.000000000000000e+00
	-7.896166405114726e-04
	7.896166405114702e-04
	7.896166405114725e-04
73		2.410950689180291e-04
	2.142295194520515e-01
	1.000000000000000e+00
	-7.857704805479485e-04
	7.857704805479399e-04
	7.857704805479484e-04
74		2.459778814180291e-04
	2.180569450757630e-01
	1.000000000000000e+00
	-7.819430549242370e-04
	7.819430549242390e-04
	7.819430549242370e-04
75		2.508606939180291e-04
	2.218657276131435e-01
	1.000000000000000e+00
	-7.781342723868565e-04
	7.781342723868490e-04
	7.781342723868565e-04
76		2.557435064180291e-04
	2.256559578731866e-01
	1.000000000000000e+00
	-7.743440421268134e-04
	7.743440421268122e-04
	7.743440421268134e-04
77		2.606263189180291e-04
	2.294277262225622e-01
	1.000000000000000e+00
	-7.705722737774378e-04
	7.705722737774423e-04
	7.705722737774378e-04
78		2.655091314180291e-04
	2.331811225877714e-01
	1.000000000000000e+00
	-7.668188774122286e-04
	7.668188774122286e-04
	7.668188774122286e-04
79		2.703919439180291e-04
	2.369162364572903e-01
	1.000000000000000e+00
	-7.630837635427098e-04
	7.630837635426990e-04
	7.630837635427096e-04
80		2.752747564180291e-04
	2.406331568837039e-01
	1.000000000000000e+00
	-7.593668431162961e-04
	7.593668431162964e-04
	7.593668431162961e-04
81		2.801575689180291e-04
	2.443319724858291e-01
	1.000000000000000e+00
	-7.556680275141710e-04
	7.556680275141725e-04
	7.556680275141710e-04
82		2.850403814180291e-04
	2.480127714508275e-01
	1.000000000000000e+00
	-7.519872285491726e-04
	7.519872285491752e-04
	7.519872285491726e-04
83		2.899231939180291e-04
	2.516756415363081e-01
	1.000000000000000e+00
	-7.483243584636920e-04
	7.483243584636839e-04
	7.483243584636919e-04
84		2.948060064180291e-04
	2.553206700724197e-01
	1.000000000000000e+00
	-7.446793299275803e-04
	7.446793299275833e-04
	7.446793299275803e-04
85		2.996888189180291e-04
	2.589479439639324e-01
	1.000000000000000e+00
	-7.410520560360676e-04
	7.410520560360567e-04
	7.410520560360676e-04
86		3.045716314180291e-04
	2.625575496923107e-01
	1.000000000000000e+00
	-7.374424503076894e-04
	7.374424503076848e-04
	7.374424503076893e-04
87		3.094544439180291e-04
	2.661495733177742e-01
	1.000000000000000e+00
	-7.338504266822258e-04
	7.338504266822116e-04
	7.338504266822258e-04
88		3.143372564180292e-04
	2.697241004813506e-01
	1.000000000000000e+00
	-7.302758995186494e-04
	7.302758995186426e-04
	7.302758995186494e-04
89		3.192200689180292e-04
	2.732812164069163e-01
	1.000000000000000e+00
	-7.267187835930838e-04
	7.267187835930805e-04
	7.267187835930838e-04
90		3.241028814180292e-04
	2.768210059032294e-01
	1.000000000000000e+00
	-7.231789940967705e-04
	7.231789940967681e-04
	7.231789940967706e-04
91		3.289856939180292e-04
	2.803435533659511e-01
	1.000000000000000e+00
	-7.196564466340489e-04
	7.196564466340344e-04
	7.196564466340489e-04
92		3.338685064180292e-04
	2.838489427796582e-01
	1.000000000000000e+00
	-7.161510572203419e-04
	7.161510572203517e-04
	7.161510572203418e-04
93		3.387513189180292e-04
	2.873372577198450e-01
	1.000000000000000e+00
	-7.126627422801551e-04
	7.126627422801568e-04
	7.126627422801551e-04
94		3.436341314180292e-04
	2.908085813549163e-01
	1.000000000000000e+00
	-7.091914186450837e-04
	7.091914186450748e-04
	7.091914186450836e-04
95		3.485169439180292e-04
	2.942629964481705e-01
	1.000000000000000e+00
	-7.057370035518295e-04
	7.057370035518234e-04
	7.057370035518295e-04
96		3.533997564180292e-04
	2.977005853597722e-01
	1.000000000000000e+00
	-7.022994146402278e-04
	7.022994146402145e-04
	7.022994146402278e-04
97		3.582825689180292e-04
	3.011214300487162e-01
	1.000000000000000e+00
	-6.988785699512839e-04
	6.988785699512667e-04
	6.988785699512839e-04
98		3.631653814180292e-04
	3.045256120747818e-01
	1.000000000000000e+00
	-6.954743879252182e-04
	6.954743879251934e-04
	6.954743879252182e-04
99		3.680481939180292e-04
	3.079132126004769e-01
	1.000000000000000e+00
	-6.920867873995231e-04
	6.920867873995151e-04
	6.920867873995231e-04
100		3.729310064180292e-04
	3.112843123929733e-01
	1.000000000000000e+00
	-6.887156876070267e-04
	6.887156876070055e-04
	6.887156876070267e-04
101		3.778138189180292e-04
	3.146389918260323e-01
	1.000000000000000e+00
	-6.853610081739678e-04
	6.853610081739570e-04
	6.853610081739677e-04
102		3.826966314180292e-04
	3.179773308819210e-01
	1.000000000000000e+00
	-6.820226691180790e-04
	6.820226691180709e-04
	6.820226691180790e-04
103		3.875794439180292e-04
	3.212994091533193e-01
	1.000000000000000e+00
	-6.787005908466807e-04
	6.787005908466814e-04
	6.787005908466807e-04
104		3.924622564180292e-04
	3.246053058452175e-01
	1.000000000000000e+00
	-6.753946941547825e-04
	6.753946941547850e-04
	6.753946941547827e-04
105		3.973450689180292e-04
	3.278950997768043e-01
	1.000000000000000e+00
	-6.721049002231957e-04
	6.721049002231805e-04
	6.721049002231957e-04
106		4.022278814180292e-04
	3.311688693833469e-01
	1.000000000000000e+00
	-6.688311306166532e-04
	6.688311306166372e-04
	6.688311306166532e-04
107		4.071106939180292e-04
	3.344266927180602e-01
	1.000000000000000e+00
	-6.655733072819398e-04
	6.655733072819248e-04
	6.655733072819397e-04
108		4.119935064180292e-04
	3.376686474539684e-01
	1.000000000000000e+00
	-6.623313525460316e-04
	6.623313525460361e-04
	6.623313525460316e-04
109		4.168763189180292e-04
	3.408948108857562e-01
	1.000000000000000e+00
	-6.591051891142438e-04
	6.591051891142174e-04
	6.591051891142439e-04
110		4.217591314180292e-04
	3.441052599316122e-01
	1.000000000000000e+00
	-6.558947400683878e-04
	6.558947400683857e-04
	6.558947400683879e-04
111		4.266419439180293e-04
	3.473000711350627e-01
	1.000000000000000e+00
	-6.526999288649374e-04
	6.526999288649360e-04
	6.526999288649373e-04
112		4.315247564180293e-04
	3.504793206667965e-01
	1.000000000000000e+00
	-6.495206793332035e-04
	6.495206793332153e-04
	6.495206793332036e-04
113		4.364075689180293e-04
	3.536430843264809e-01
	1.000000000000000e+00
	-6.463569156735192e-04
	6.463569156735238e-04
	6.463569156735192e-04
114		4.412903814180293e-04
	3.567914375445691e-01
	1.000000000000000e+00
	-6.432085624554309e-04
	6.432085624554218e-04
	6.432085624554309e-04
115		4.461731939180293e-04
	3.599244553840987e-01
	1.000000000000000e+00
	-6.400755446159014e-04
	6.400755446158701e-04
	6.400755446159014e-04
116		4.510560064180293e-04
	3.630422125424810e-01
	1.000000000000000e+00
	-6.369577874575190e-04
	6.369577874575094e-04
	6.369577874575190e-04
117		4.559388189180293e-04
	3.661447833532823e-01
	1.000000000000000e+00
	-6.338552166467176e-04
	6.338552166467171e-04
	6.338552166467177e-04
118		4.608216314180293e-04
	3.692322417879959e-01
	1.000000000000000e+00
	-6.307677582120041e-04
	6.307677582119975e-04
	6.307677582120042e-04
119		4.657044439180293e-04
	3.723046614578059e-01
	1.000000000000000e+00
	-6.276953385421940e-04
	6.276953385422057e-04
	6.276953385421941e-04
120		4.705872564180293e-04
	3.753621156153422e-01
	1.000000000000000e+00
	-6.246378843846578e-04
	6.246378843846323e-04
	6.246378843846579e-04
121		4.754700689180293e-04
	3.784046771564268e-01
	1.000000000000000e+00
	-6.215953228435732e-04
	6.215953228435600e-04
	6.215953228435732e-04
122		4.803528814180293e-04
	3.814324186218120e-01
	1.000000000000000e+00
	-6.185675813781881e-04
	6.185675813781821e-04
	6.185675813781879e-04
123		4.852356939180293e-04
	3.844454121989099e-01
	1.000000000000000e+00
	-6.155545878010901e-04
	6.155545878011037e-04
	6.155545878010901e-04
124		4.901185064180293e-04
	3.874437297235134e-01
	1.000000000000000e+00
	-6.125562702764865e-04
	6.125562702764820e-04
	6.125562702764866e-04
125		4.950013189180293e-04
	3.904274426815090e-01
	1.000000000000000e+00
	-6.095725573184911e-04
	6.095725573184996e-04
	6.095725573184910e-04
126		4.998841314180293e-04
	3.933966222105810e-01
	1.000000000000000e+00
	-6.066033777894190e-04
	6.066033777893942e-04
	6.066033777894189e-04
127		5.047669439180293e-04
	3.963513391019080e-01
	1.000000000000000e+00
	-6.036486608980919e-04
	6.036486608980984e-04
	6.036486608980920e-04
128		5.096497564180293e-04
	3.992916638018499e-01
	1.000000000000000e+00
	-6.007083361981502e-04
	6.007083361981302e-04
	6.007083361981501e-04
129		5.145325689180293e-04
	4.022176664136284e-01
	1.000000000000000e+00
	-5.977823335863715e-04
	5.977823335863719e-04
	5.977823335863716e-04
130		5.194153814180293e-04
	4.051294166989980e-01
	1.000000000000000e+00
	-5.948705833010020e-04
	5.948705833009882e-04
	5.948705833010020e-04
131		5.242981939180293e-04
	4.080269840799090e-01
	1.000000000000000e+00
	-5.919730159200912e-04
	5.919730159200665e-04
	5.919730159200910e-04
132		5.291810064180293e-04
	4.109104376401628e-01
	1.000000000000000e+00
	-5.890895623598372e-04
	5.890895623598125e-04
	5.890895623598372e-04
133		5.340638189180293e-04
	4.137798461270591e-01
	1.000000000000000e+00
	-5.862201538729408e-04
	5.862201538729406e-04
	5.862201538729409e-04
134		5.389466314180293e-04
	4.166352779530354e-01
	1.000000000000000e+00
	-5.833647220469646e-04
	5.833647220469806e-04
	5.833647220469647e-04
135		5.438294439180293e-04
	4.194768011972974e-01
	1.000000000000000e+00
	-5.805231988027027e-04
	5.805231988026960e-04
	5.805231988027027e-04
136		5.487122564180293e-04
	4.223044836074421e-01
	1.000000000000000e+00
	-5.776955163925579e-04
	5.776955163925568e-04
	5.776955163925579e-04
137		5.535950689180293e-04
	4.251183926010736e-01
	1.000000000000000e+00
	-5.748816073989265e-04
	5.748816073989083e-04
	5.748816073989264e-04
138		5.584778814180293e-04
	4.279185952674103e-01
	1.000000000000000e+00
	-5.720814047325897e-04
	5.720814047325828e-04
	5.720814047325898e-04
139		5.633606939180293e-04
	4.307051583688842e-01
	1.000000000000000e+00
	-5.692948416311157e-04
	5.692948416311239e-04
	5.692948416311157e-04
140		5.682435064180293e-04
	4.334781483427328e-01
	1.000000000000000e+00
	-5.665218516572672e-04
	5.665218516572590e-04
	5.665218516572672e-04
141		5.731263189180293e-04
	4.362376313025830e-01
	1.000000000000000e+00
	-5.637623686974170e-04
	5.637623686974014e-04
	5.637623686974169e-04
142		5.780091314180293e-04
	4.389836730400278e-01
	1.000000000000000e+00
	-5.610163269599722e-04
	5.610163269599844e-04
	5.610163269599721e-04
143		5.828919439180293e-04
	4.417163390261943e-01
	1.000000000000000e+00
	-5.582836609738058e-04
	5.582836609737962e-04
	5.582836609738058e-04
144		5.877747564180293e-04
	4.444356944133049e-01
	1.000000000000000e+00
	-5.555643055866952e-04
	5.555643055866755e-04
	5.555643055866951e-04
145		5.926575689180293e-04
	4.471418040362309e-01
	1.000000000000000e+00
	-5.528581959637691e-04
	5.528581959637624e-04
	5.528581959637691e-04
146		5.975403814180294e-04
	4.498347324140379e-01
	1.000000000000000e+00
	-5.501652675859621e-04
	5.501652675859448e-04
	5.501652675859621e-04
147		6.024231939180294e-04
	4.525145437515244e-01
	1.000000000000000e+00
	-5.474854562484756e-04
	5.474854562484699e-04
	5.474854562484756e-04
148		6.073060064180294e-04
	4.551813019407522e-01
	1.000000000000000e+00
	-5.448186980592477e-04
	5.448186980592518e-04
	5.448186980592477e-04
149		6.121888189180294e-04
	4.578350705625703e-01
	1.000000000000000e+00
	-5.421649294374297e-04
	5.421649294374276e-04
	5.421649294374298e-04
150		6.170716314180294e-04
	4.604759128881301e-01
	1.000000000000000e+00
	-5.395240871118699e-04
	5.395240871118590e-04
	5.395240871118698e-04
151		6.219544439180294e-04
	4.631038918803945e-01
	1.000000000000000e+00
	-5.368961081196055e-04
	5.368961081196055e-04
	5.368961081196055e-04
152		6.268372564180294e-04
	4.657190701956386e-01
	1.000000000000000e+00
	-5.342809298043614e-04
	5.342809298043427e-04
	5.342809298043614e-04
153		6.317200689180294e-04
	4.683215101849437e-01
	1.000000000000000e+00
	-5.316784898150562e-04
	5.316784898150573e-04
	5.316784898150563e-04
154		6.366028814180294e-04
	4.709112738956843e-01
	1.000000000000000e+00
	-5.290887261043156e-04
	5.290887261042987e-04
	5.290887261043157e-04
155		6.414856939180294e-04
	4.734884230730068e-01
	1.000000000000000e+00
	-5.265115769269933e-04
	5.265115769269857e-04
	5.265115769269933e-04
156		6.463685064180294e-04
	4.760530191613020e-01
	1.000000000000000e+00
	-5.239469808386980e-04
	5.239469808386854e-04
	5.239469808386981e-04
157		6.512513189180294e-04
	4.786051233056698e-01
	1.000000000000000e+00
	-5.213948766943303e-04
	5.213948766943088e-04
	5.213948766943302e-04
158		6.561341314180294e-04
	4.811447963533772e-01
	1.000000000000000e+00
	-5.188552036466228e-04
	5.188552036466121e-04
	5.188552036466227e-04
159		6.610169439180294e-04
	4.836720988553092e-01
	1.000000000000000e+00
	-5.163279011446908e-04
	5.163279011446975e-04
	5.163279011446909e-04
160		6.658997564180294e-04
	4.861870910674121e-01
	1.000000000000000e+00
	-5.138129089325879e-04
	5.138129089325705e-04
	5.138129089325879e-04
161		6.707825689180294e-04
	4.886898329521299e-01
	1.000000000000000e+00
	-5.113101670478701e-04
	5.113101670478626e-04
	5.113101670478702e-04
162		6.756653814180294e-04
	4.911803841798350e-01
	1.000000000000000e+00
	-5.088196158201650e-04
	5.088196158201386e-04
	5.088196158201650e-04
163		6.805481939180294e-04
	4.936588041302497e-01
	1.000000000000000e+00
	-5.063411958697504e-04
	5.063411958697306e-04
	5.063411958697503e-04
164		6.854310064180294e-04
	4.961251518938626e-01
	1.000000000000000e+00
	-5.038748481061374e-04
	5.038748481061284e-04
	5.038748481061374e-04
165		6.903138189180294e-04
	4.985794862733372e-01
	1.000000000000000e+00
	-5.014205137266628e-04
	5.014205137266470e-04
	5.014205137266628e-04
166		6.951966314180294e-04
	5.010218657849137e-01
	1.000000000000000e+00
	-4.989781342150863e-04
	4.989781342150668e-04
	4.989781342150863e-04
167		7.000794439180294e-04
	5.034523486598044e-01
	1.000000000000000e+00
	-4.965476513401956e-04
	4.965476513401901e-04
	4.965476513401956e-04
168		7.049622564180294e-04
	5.058709928455821e-01
	1.000000000000000e+00
	-4.941290071544178e-04
	4.941290071543980e-04
	4.941290071544178e-04
169		7.098450689180295e-04
	5.082778560075617e-01
	1.000000000000000e+00
	-4.917221439924384e-04
	4.917221439924013e-04
	4.917221439924383e-04
170		7.147278814180295e-04
	5.106729955301746e-01
	1.000000000000000e+00
	-4.893270044698253e-04
	4.893270044697973e-04
	4.893270044698253e-04
171		7.196106939180295e-04
	5.130564685183375e-01
	1.000000000000000e+00
	-4.869435314816625e-04
	4.869435314816539e-04
	4.869435314816625e-04
172		7.244935064180295e-04
	5.154283317988133e-01
	1.000000000000000e+00
	-4.845716682011867e-04
	4.845716682011780e-04
	4.845716682011867e-04
173		7.293763189180295e-04
	5.177886419215664e-01
	1.000000000000000e+00
	-4.822113580784337e-04
	4.822113580784104e-04
	4.822113580784336e-04
174		7.342591314180295e-04
	5.201374551611107e-01
	1.000000000000000e+00
	-4.798625448388893e-04
	4.798625448388660e-04
	4.798625448388893e-04
175		7.391419439180295e-04
	5.224748275178516e-01
	1.000000000000000e+00
	-4.775251724821486e-04
	4.775251724821461e-04
	4.775251724821484e-04
176		7.440247564180295e-04
	5.248008147194207e-01
	1.000000000000000e+00
	-4.751991852805793e-04
	4.751991852805504e-04
	4.751991852805793e-04
177		7.489075689180295e-04
	5.271154722220051e-01
	1.000000000000000e+00
	-4.728845277779949e-04
	4.728845277779670e-04
	4.728845277779949e-04
178		7.537903814180295e-04
	5.294188552116689e-01
	1.000000000000000e+00
	-4.705811447883311e-04
	4.705811447883179e-04
	4.705811447883311e-04
179		7.586731939180295e-04
	5.317110186056695e-01
	1.000000000000000e+00
	-4.682889813943305e-04
	4.682889813943381e-04
	4.682889813943305e-04
180		7.635560064180295e-04
	5.339920170537666e-01
	1.000000000000000e+00
	-4.660079829462334e-04
	4.660079829462427e-04
	4.660079829462334e-04
181		7.684388189180295e-04
	5.362619049395252e-01
	1.000000000000000e+00
	-4.637380950604748e-04
	4.637380950604508e-04
	4.637380950604748e-04
182		7.733216314180295e-04
	5.385207363816122e-01
	1.000000000000000e+00
	-4.614792636183877e-04
	4.614792636183918e-04
	4.614792636183877e-04
183		7.782044439180295e-04
	5.407685652350871e-01
	1.000000000000000e+00
	-4.592314347649129e-04
	4.592314347648951e-04
	4.592314347649129e-04
184		7.830872564180295e-04
	5.430054450926853e-01
	1.000000000000000e+00
	-4.569945549073147e-04
	4.569945549073029e-04
	4.569945549073147e-04
185		7.879700689180295e-04
	5.452314292860965e-01
	1.000000000000000e+00
	-4.547685707139036e-04
	4.547685707138871e-04
	4.547685707139035e-04
186		7.928528814180295e-04
	5.474465708872358e-01
	1.000000000000000e+00
	-4.525534291127642e-04
	4.525534291127675e-04
	4.525534291127642e-04
187		7.977356939180295e-04
	5.496509227095093e-01
	1.000000000000000e+00
	-4.503490772904907e-04
	4.503490772904684e-04
	4.503490772904907e-04
188		8.026185064180295e-04
	5.518445373090732e-01
	1.000000000000000e+00
	-4.481554626909268e-04
	4.481554626909190e-04
	4.481554626909268e-04
189		8.075013189180295e-04
	5.540274669860871e-01
	1.000000000000000e+00
	-4.459725330139128e-04
	4.459725330139275e-04
	4.459725330139129e-04
190		8.123841314180295e-04
	5.561997637859600e-01
	1.000000000000000e+00
	-4.438002362140400e-04
	4.438002362140425e-04
	4.438002362140400e-04
191		8.172669439180295e-04
	5.583614795005925e-01
	1.000000000000000e+00
	-4.416385204994074e-04
	4.416385204994155e-04
	4.416385204994076e-04
192		8.221497564180295e-04
	5.605126656696103e-01
	1.000000000000000e+00
	-4.394873343303896e-04
	4.394873343303851e-04
	4.394873343303897e-04
193		8.270325689180296e-04
	5.626533735815946e-01
	1.000000000000000e+00
	-4.373466264184053e-04
	4.373466264183945e-04
	4.373466264184054e-04
194		8.319153814180296e-04
	5.647836542753033e-01
	1.000000000000000e+00
	-4.352163457246966e-04
	4.352163457246871e-04
	4.352163457246967e-04
195		8.367981939180296e-04
	5.669035585408887e-01
	1.000000000000000e+00
	-4.330964414591113e-04
	4.330964414591132e-04
	4.330964414591113e-04
196		8.416810064180296e-04
	5.690131369211084e-01
	1.000000000000000e+00
	-4.309868630788915e-04
	4.309868630788805e-04
	4.309868630788916e-04
197		8.465638189180296e-04
	5.711124397125301e-01
	1.000000000000000e+00
	-4.288875602874699e-04
	4.288875602874720e-04
	4.288875602874699e-04
198		8.514466314180296e-04
	5.732015169667312e-01
	1.000000000000000e+00
	-4.267984830332689e-04
	4.267984830332583e-04
	4.267984830332689e-04